
    -----------------------------------------------------------------------
          Psi4: An Open-Source Ab Initio Electronic Structure Package
                               Psi4 1.9.1 release

                         Git: Rev {} zzzzzzz 


    D. G. A. Smith, L. A. Burns, A. C. Simmonett, R. M. Parrish,
    M. C. Schieber, R. Galvelis, P. Kraus, H. Kruse, R. Di Remigio,
    A. Alenaizan, A. M. James, S. Lehtola, J. P. Misiewicz, M. Scheurer,
    R. A. Shaw, J. B. Schriber, Y. Xie, Z. L. Glick, D. A. Sirianni,
    J. S. O'Brien, J. M. Waldrop, A. Kumar, E. G. Hohenstein,
    B. P. Pritchard, B. R. Brooks, H. F. Schaefer III, A. Yu. Sokolov,
    K. Patkowski, A. E. DePrince III, U. Bozkaya, R. A. King,
    F. A. Evangelista, J. M. Turney, T. D. Crawford, C. D. Sherrill,
    J. Chem. Phys. 152(18) 184108 (2020). https://doi.org/10.1063/5.0006002

                            Additional Code Authors
    E. T. Seidl, C. L. Janssen, E. F. Valeev, M. L. Leininger,
    J. F. Gonthier, R. M. Richard, H. R. McAlexander, M. Saitow, X. Wang,
    P. Verma, M. H. Lechner, A. Jiang, S. Behnle, A. G. Heide,
    M. F. Herbst, and D. L. Poole

             Previous Authors, Complete List of Code Contributors,
                       and Citations for Specific Modules
    https://github.com/psi4/psi4/blob/master/codemeta.json
    https://github.com/psi4/psi4/graphs/contributors
    http://psicode.org/psi4manual/master/introduction.html#citing-psifour

    -----------------------------------------------------------------------


    Psi4 started on: Tuesday, 14 May 2024 02:28PM

    Process ID: 83709
    Host:       CHEMYY31VALT
    PSIDATADIR: /Users/jfoley19/miniforge3/envs/p4env/share/psi4
    Memory:     500.0 MiB
    Threads:    1
    
  ==> Input File <==

--------------------------------------------------------------------------
molecule form {
    pubchem:formaldehyde
}

set basis cc-pVTZ
optimize('ccsd(t)', dertype='energy')
--------------------------------------------------------------------------

Scratch directory: /tmp/

         ----------------------------------------------------------
                                   FINDIF
                     R. A. King and Jonathon Misiewicz
         ----------------------------------------------------------

  Using finite-differences of energies to determine gradients.
    Generating geometries for use with 3-point formula.
    Displacement size will be 5.00e-03.
    Number of atoms is 4.
    Number of symmetric SALCs is 6.
    Translations projected? 1. Rotations projected? 1.
    Number of geometries (including reference) is 13.
 13 displacements needed ...

  //>>>>>>>>>>>>>>>>>>>>>>>>>>>>>>>>>>>//
  //    FiniteDifference Computations  //
  //<<<<<<<<<<<<<<<<<<<<<<<<<<<<<<<<<<<//


    -----------------------------------------------------------------------
          Psi4: An Open-Source Ab Initio Electronic Structure Package
                               Psi4 1.9.1 release

                         Git: Rev {} zzzzzzz 


    D. G. A. Smith, L. A. Burns, A. C. Simmonett, R. M. Parrish,
    M. C. Schieber, R. Galvelis, P. Kraus, H. Kruse, R. Di Remigio,
    A. Alenaizan, A. M. James, S. Lehtola, J. P. Misiewicz, M. Scheurer,
    R. A. Shaw, J. B. Schriber, Y. Xie, Z. L. Glick, D. A. Sirianni,
    J. S. O'Brien, J. M. Waldrop, A. Kumar, E. G. Hohenstein,
    B. P. Pritchard, B. R. Brooks, H. F. Schaefer III, A. Yu. Sokolov,
    K. Patkowski, A. E. DePrince III, U. Bozkaya, R. A. King,
    F. A. Evangelista, J. M. Turney, T. D. Crawford, C. D. Sherrill,
    J. Chem. Phys. 152(18) 184108 (2020). https://doi.org/10.1063/5.0006002

                            Additional Code Authors
    E. T. Seidl, C. L. Janssen, E. F. Valeev, M. L. Leininger,
    J. F. Gonthier, R. M. Richard, H. R. McAlexander, M. Saitow, X. Wang,
    P. Verma, M. H. Lechner, A. Jiang, S. Behnle, A. G. Heide,
    M. F. Herbst, and D. L. Poole

             Previous Authors, Complete List of Code Contributors,
                       and Citations for Specific Modules
    https://github.com/psi4/psi4/blob/master/codemeta.json
    https://github.com/psi4/psi4/graphs/contributors
    http://psicode.org/psi4manual/master/introduction.html#citing-psifour

    -----------------------------------------------------------------------


    Psi4 started on: Tuesday, 14 May 2024 02:28PM

    Process ID: 83709
    Host:       CHEMYY31VALT
    PSIDATADIR: /Users/jfoley19/miniforge3/envs/p4env/share/psi4
    Memory:     500.0 MiB
    Threads:    1
    
  ==> Input QCSchema <==

--------------------------------------------------------------------------
{'driver': 'energy',
 'extras': {'psiapi': True, 'wfn_qcvars_only': True},
 'id': None,
 'keywords': {'E_CONVERGENCE': 1e-08,
              'PARENT_SYMMETRY': 'C1',
              'SCF__D_CONVERGENCE': 1e-10,
              'SCF__E_CONVERGENCE': 1e-10,
              'function_kwargs': {}},
 'model': {'basis': 'cc-pvtz', 'method': 'ccsd(t)'},
 'molecule': {'atom_labels': ['', '', '', ''],
              'atomic_numbers': [8, 6, 1, 1],
              'extras': {},
              'fix_com': True,
              'fix_orientation': True,
              'fragment_charges': [0.0],
              'fragment_multiplicities': [1],
              'fragments': [[0, 1, 2, 3]],
              'geometry': [1.155359874323108, -1.2692285622395628e-05, 0.0, -1.1587987389125478,
                           -1.2692285622395628e-05, 0.0, -2.2693907828441136, 0.45843486575044673, -1.7003755676869539,
                           -2.2693907828441136, -0.4580823050966, 1.7003755676869539],
              'mass_numbers': [16, 12, 1, 1],
              'masses': [15.99491461957, 12.0, 1.00782503223, 1.00782503223],
              'molecular_charge': 0.0,
              'molecular_multiplicity': 1,
              'name': 'form',
              'provenance': {'creator': 'QCElemental',
                             'routine': 'qcelemental.molparse.from_string',
                             'version': '0.27.1'},
              'real': [True, True, True, True],
              'schema_name': 'qcschema_molecule',
              'schema_version': 2,
              'symbols': ['O', 'C', 'H', 'H'],
              'validated': True},
 'protocols': {'stdout': True},
 'provenance': {'creator': 'QCElemental', 'routine': 'qcelemental.models.results', 'version': '0.27.1'},
 'schema_name': 'qcschema_input',
 'schema_version': 1}
--------------------------------------------------------------------------

Scratch directory: /tmp/
   => Libint2 <=

    Primary   basis highest AM E, G, H:  6, 6, 3
    Auxiliary basis highest AM E, G, H:  7, 7, 4
    Onebody   basis highest AM E, G, H:  -, -, -
    Solid Harmonics ordering:            Gaussian

*** tstart() called on CHEMYY31VALT
*** at Tue May 14 14:28:55 2024

   => Loading Basis Set <=

    Name: CC-PVTZ
    Role: ORBITAL
    Keyword: BASIS
    atoms 1   entry O          line   262 file /Users/jfoley19/miniforge3/envs/p4env/share/psi4/basis/cc-pvtz.gbs 
    atoms 2   entry C          line   186 file /Users/jfoley19/miniforge3/envs/p4env/share/psi4/basis/cc-pvtz.gbs 
    atoms 3-4 entry H          line    23 file /Users/jfoley19/miniforge3/envs/p4env/share/psi4/basis/cc-pvtz.gbs 


         ---------------------------------------------------------
                                   SCF
               by Justin Turney, Rob Parrish, Andy Simmonett
                          and Daniel G. A. Smith
                              RHF Reference
                        1 Threads,    500 MiB Core
         ---------------------------------------------------------

  ==> Geometry <==

    Molecular point group: c1
    Full point group: C1

    Geometry (in Bohr), charge = 0, multiplicity = 1:

       Center              X                  Y                   Z               Mass       
    ------------   -----------------  -----------------  -----------------  -----------------
         O            1.155359874323    -0.000012692286     0.000000000000    15.994914619570
         C           -1.158798738913    -0.000012692286     0.000000000000    12.000000000000
         H           -2.269390782844     0.458434865750    -1.700375567687     1.007825032230
         H           -2.269390782844    -0.458082305097     1.700375567687     1.007825032230

  Running in c1 symmetry.

  Rotational constants: A =      9.63027  B =      1.25821  C =      1.11282 [cm^-1]
  Rotational constants: A = 288708.18387  B =  37720.14118  C =  33361.42313 [MHz]
  Nuclear repulsion =   30.944277666154122

  Charge       = 0
  Multiplicity = 1
  Electrons    = 16
  Nalpha       = 8
  Nbeta        = 8

  ==> Algorithm <==

  SCF Algorithm Type is PK.
  DIIS enabled.
  MOM disabled.
  Fractional occupation disabled.
  Guess Type is SAD.
  Energy threshold   = 1.00e-10
  Density threshold  = 1.00e-10
  Integral threshold = 1.00e-12

  ==> Primary Basis <==

  Basis Set: CC-PVTZ
    Blend: CC-PVTZ
    Number of shells: 32
    Number of basis functions: 88
    Number of Cartesian functions: 100
    Spherical Harmonics?: true
    Max angular momentum: 3

  ==> Integral Setup <==

  Using in-core PK algorithm.
   Calculation information:
      Number of atoms:                   4
      Number of AO shells:              32
      Number of primitives:             68
      Number of atomic orbitals:       100
      Number of basis functions:        88

      Integral cutoff                 1.00e-12
      Number of threads:                 1

  Performing in-core PK
  Using 15338972 doubles for integral storage.
  We computed 139656 shell quartets total.
  Whereas there are 139656 unique shell quartets.

  ==> DiskJK: Disk-Based J/K Matrices <==

    J tasked:                  Yes
    K tasked:                  Yes
    wK tasked:                  No
    Memory [MiB]:              375
    Schwarz Cutoff:          1E-12

    OpenMP threads:              1

  Minimum eigenvalue in the overlap matrix is 2.1654087104E-03.
  Reciprocal condition number of the overlap matrix is 3.9653482696E-04.
    Using symmetric orthogonalization.

  ==> Pre-Iterations <==

  SCF Guess: Superposition of Atomic Densities via on-the-fly atomic UHF (no occupation information).

   -------------------------
    Irrep   Nso     Nmo    
   -------------------------
     A         88      88 
   -------------------------
    Total      88      88
   -------------------------

  ==> Iterations <==

                        Total Energy        Delta E     RMS |[F,P]|

   @RHF iter SAD:  -113.10524988647744   -1.13105e+02   0.00000e+00 
   @RHF iter   1:  -113.84710394742621   -7.41854e-01   4.34644e-03 DIIS/ADIIS
   @RHF iter   2:  -113.87309265107800   -2.59887e-02   3.71796e-03 DIIS/ADIIS
   @RHF iter   3:  -113.90863600773076   -3.55434e-02   2.79715e-04 DIIS/ADIIS
   @RHF iter   4:  -113.90917286091022   -5.36853e-04   6.95261e-05 DIIS
   @RHF iter   5:  -113.90921516161755   -4.23007e-05   3.00957e-05 DIIS
   @RHF iter   6:  -113.90922660596254   -1.14443e-05   1.52253e-05 DIIS
   @RHF iter   7:  -113.90922893066616   -2.32470e-06   3.65110e-06 DIIS
   @RHF iter   8:  -113.90922904557847   -1.14912e-07   4.30451e-07 DIIS
   @RHF iter   9:  -113.90922904720205   -1.62358e-09   9.05527e-08 DIIS
   @RHF iter  10:  -113.90922904726114   -5.90887e-11   1.42501e-08 DIIS
   @RHF iter  11:  -113.90922904726307   -1.93268e-12   1.57332e-09 DIIS
   @RHF iter  12:  -113.90922904726310   -2.84217e-14   2.70253e-10 DIIS
   @RHF iter  13:  -113.90922904726325   -1.56319e-13   4.45003e-11 DIIS
  Energy and wave function converged.


  ==> Post-Iterations <==

    Orbital Energies [Eh]
    ---------------------

    Doubly Occupied:                                                      

       1A    -20.576172     2A    -11.343560     3A     -1.392029  
       4A     -0.873273     5A     -0.688308     6A     -0.646025  
       7A     -0.527142     8A     -0.444015  

    Virtual:                                                              

       9A      0.113635    10A      0.146242    11A      0.205110  
      12A      0.268198    13A      0.439158    14A      0.444132  
      15A      0.457401    16A      0.588622    17A      0.619211  
      18A      0.682617    19A      0.705337    20A      0.728252  
      21A      0.867774    22A      0.894580    23A      0.939826  
      24A      1.020838    25A      1.070869    26A      1.177564  
      27A      1.196252    28A      1.216652    29A      1.330088  
      30A      1.330260    31A      1.470340    32A      1.651709  
      33A      1.776154    34A      1.943772    35A      2.003073  
      36A      2.157982    37A      2.293209    38A      2.320187  
      39A      2.350870    40A      2.477558    41A      2.632997  
      42A      2.828475    43A      2.871715    44A      2.928001  
      45A      3.018546    46A      3.122857    47A      3.172477  
      48A      3.219955    49A      3.266194    50A      3.417846  
      51A      3.452497    52A      3.483834    53A      3.604193  
      54A      3.613745    55A      3.626297    56A      3.679339  
      57A      3.907841    58A      4.017674    59A      4.132130  
      60A      4.172909    61A      4.200543    62A      4.253145  
      63A      4.408614    64A      4.498359    65A      4.743883  
      66A      4.773656    67A      4.919852    68A      5.045959  
      69A      5.061267    70A      5.062178    71A      5.370983  
      72A      5.398678    73A      5.596648    74A      5.658108  
      75A      5.663789    76A      6.057078    77A      6.093030  
      78A      6.248448    79A      6.568222    80A      6.582387  
      81A      6.853510    82A      6.883666    83A      7.283835  
      84A      7.368719    85A      7.505672    86A      7.507041  
      87A     10.969608    88A     13.247874  

    Final Occupation by Irrep:
              A 
    DOCC [     8 ]
    NA   [     8 ]
    NB   [     8 ]

  @RHF Final Energy:  -113.90922904726325

   => Energetics <=

    Nuclear Repulsion Energy =             30.9442776661541217
    One-Electron Energy =                -216.7259613591998573
    Two-Electron Energy =                  71.8724546457824971
    Total Energy =                       -113.9092290472632527

Computation Completed


Properties will be evaluated at   0.000000,   0.000000,   0.000000 [a0]

Properties computed using the SCF density matrix


 Multipole Moments:

 ------------------------------------------------------------------------------------
     Multipole            Electronic (a.u.)      Nuclear  (a.u.)        Total (a.u.)
 ------------------------------------------------------------------------------------

 L = 1.  Multiply by 2.5417464519 to convert [e a0] to [Debye]
 Dipole X            :          1.1108024           -2.2486950           -1.1378926
 Dipole Y            :         -0.0001464            0.0001749            0.0000285
 Dipole Z            :          0.0000230            0.0000000            0.0000230
 Magnitude           :                                                    1.1378926

 ------------------------------------------------------------------------------------

*** tstop() called on CHEMYY31VALT at Tue May 14 14:28:56 2024
Module time:
	user time   =       0.66 seconds =       0.01 minutes
	system time =       0.05 seconds =       0.00 minutes
	total time  =          1 seconds =       0.02 minutes
Total time:
	user time   =       0.66 seconds =       0.01 minutes
	system time =       0.05 seconds =       0.00 minutes
	total time  =          1 seconds =       0.02 minutes
 MINTS: Wrapper to libmints.
   by Justin Turney

   Calculation information:
      Number of threads:                 1
      Number of atoms:                   4
      Number of AO shells:              32
      Number of SO shells:              32
      Number of primitives:             68
      Number of atomic orbitals:       100
      Number of basis functions:        88

      Number of irreps:                  1
      Integral cutoff                 1.00e-12
      Number of functions per irrep: [  88 ]

 OEINTS: Overlap, kinetic, potential, dipole, and quadrupole integrals
         stored in file 35.

      Computing two-electron integrals...done
      Computed 6333654 non-zero two-electron integrals.
        Stored in file 33.


*** tstart() called on CHEMYY31VALT
*** at Tue May 14 14:28:57 2024


	Wfn Parameters:
	--------------------
	Wavefunction         = CCSD_T
	Number of irreps     = 1
	Number of MOs        = 88
	Number of active MOs = 88
	AO-Basis             = NONE
	Semicanonical        = false
	Reference            = RHF
	Print Level          = 1

	IRREP	# MOs	# FZDC	# DOCC	# SOCC	# VIRT	# FZVR
	-----	-----	------	------	------	------	------
	 A	   88	    0	    8	    0	    80	    0
	Transforming integrals...
	IWL integrals will be deleted.
	(OO|OO)...
	Presorting SO-basis two-electron integrals.
	Sorting File: SO Ints (nn|nn) nbuckets = 1
	Constructing frozen core operators
	Starting first half-transformation.
	Sorting half-transformed integrals.
	First half integral transformation complete.
	Starting second half-transformation.
	Two-electron integral transformation complete.
	(OO|OV)...
	Starting second half-transformation.
	Two-electron integral transformation complete.
	(OO|VV)...
	Starting second half-transformation.
	Two-electron integral transformation complete.
	(OV|OO)...
	Starting first half-transformation.
	Sorting half-transformed integrals.
	First half integral transformation complete.
	Starting second half-transformation.
	Two-electron integral transformation complete.
	(OV|OV)...
	Starting second half-transformation.
	Two-electron integral transformation complete.
	(OV|VV)...
	Starting second half-transformation.
	Two-electron integral transformation complete.
	(VV|OO)...
	Starting first half-transformation.
	Sorting half-transformed integrals.
	First half integral transformation complete.
	Starting second half-transformation.
	Two-electron integral transformation complete.
	(VV|OV)...
	Starting second half-transformation.
	Two-electron integral transformation complete.
	(VV|VV)...
	Starting second half-transformation.
	Two-electron integral transformation complete.
	Frozen core energy     =      0.00000000000000

	Size of irrep 0 of <ab|cd> integrals:     40.960 (MW) /    327.680 (MB)
	Total:                                    40.960 (MW) /    327.680 (MB)

	Size of irrep 0 of <ia|bc> integrals:      4.096 (MW) /     32.768 (MB)
	Total:                                     4.096 (MW) /     32.768 (MB)

	Size of irrep 0 of tijab amplitudes:       0.410 (MW) /      3.277 (MB)
	Total:                                     0.410 (MW) /      3.277 (MB)

	Nuclear Rep. energy          =     30.94427766615412
	SCF energy                   =   -113.90922904726325
	One-electron energy          =   -216.72596134863727
	Two-electron energy          =     71.87245463522015
	Reference energy             =   -113.90922904726300

*** tstop() called on CHEMYY31VALT at Tue May 14 14:28:59 2024
Module time:
	user time   =       1.50 seconds =       0.03 minutes
	system time =       0.79 seconds =       0.01 minutes
	total time  =          2 seconds =       0.03 minutes
Total time:
	user time   =       2.41 seconds =       0.04 minutes
	system time =       0.95 seconds =       0.02 minutes
	total time  =          4 seconds =       0.07 minutes
            **************************
            *                        *
            *        CCENERGY        *
            *                        *
            **************************

    Nuclear Rep. energy (wfn)     =   30.944277666154122
    SCF energy          (wfn)     = -113.909229047263253
    Reference energy    (file100) = -113.909229047262997

    Input parameters:
    -----------------
    Wave function   =     CCSD_T
    Reference wfn   =     RHF
    Brueckner       =     No
    Memory (Mbytes) =     524.3
    Maxiter         =     50
    R_Convergence   =     1.0e-07
    E_Convergence   =     1.0e-08
    Restart         =     Yes
    DIIS            =     Yes
    AO Basis        =     NONE
    ABCD            =     NEW
    Cache Level     =     2
    Cache Type      =     LOW
    Print Level     =     1
    Num. of threads =     1
    # Amps to Print =     10
    Print MP2 Amps? =     No
    Analyze T2 Amps =     No
    Print Pair Ener =     No
    Local CC        =     No
    SCS-MP2         =     False
    SCSN-MP2        =     False
    SCS-CCSD        =     False

MP2 correlation energy -0.4254866779037058
                Solving CC Amplitude Equations
                ------------------------------
  Iter             Energy              RMS        T1Diag      D1Diag    New D1Diag    D2Diag
  ----     ---------------------    ---------   ----------  ----------  ----------   --------
     0        -0.425486677903706    0.000e+00    0.000000    0.000000    0.000000    0.163878
     1        -0.420506909543722    6.303e-02    0.011574    0.036414    0.036414    0.160265
     2        -0.432146662359227    2.558e-02    0.010986    0.036060    0.036060    0.173399
     3        -0.435658310379752    1.130e-02    0.013445    0.045017    0.045017    0.181047
     4        -0.435305593165346    2.997e-03    0.013815    0.046913    0.046913    0.182897
     5        -0.435408083495590    1.400e-03    0.014080    0.048185    0.048185    0.184103
     6        -0.435428720559486    3.539e-04    0.014131    0.048507    0.048507    0.184240
     7        -0.435418130535617    1.288e-04    0.014136    0.048570    0.048570    0.184225
     8        -0.435417289865025    4.413e-05    0.014141    0.048607    0.048607    0.184226
     9        -0.435417491953579    1.184e-05    0.014141    0.048613    0.048613    0.184224
    10        -0.435416805474525    4.099e-06    0.014141    0.048614    0.048614    0.184223
    11        -0.435417041354293    1.584e-06    0.014141    0.048614    0.048614    0.184223
    12        -0.435416972034519    4.674e-07    0.014141    0.048614    0.048614    0.184223
    13        -0.435416993014416    2.091e-07    0.014141    0.048614    0.048614    0.184223
    14        -0.435416995226402    4.421e-08    0.014141    0.048614    0.048614    0.184223
    15        -0.435416994708663    1.672e-08    0.014141    0.048614    0.048614    0.184223

    Iterations converged.


    Largest TIA Amplitudes:
              6   0        -0.0361592773
              6   5        -0.0244854616
              7   2        -0.0127337038
              6  12         0.0127253159
              4   8        -0.0112409967
              6  19         0.0105281205
              7   6        -0.0085358180
              7   8        -0.0083727248
              6  27         0.0079530094
              4   6        -0.0076168975

    Largest TIjAb Amplitudes:
      6   6   0   0        -0.1136310489
      6   6   0  12        -0.0372322847
      6   6  12   0        -0.0372322847
      6   6   0   5        -0.0310815066
      6   6   5   0        -0.0310815066
      3   3   0   0        -0.0286772062
      5   6   9   0        -0.0262492424
      6   5   0   9        -0.0262492424
      4   4   8   8        -0.0262483431
      5   5   9   9        -0.0247603271

    SCF energy       (wfn)                    = -113.909229047263253
    Reference energy (file100)                = -113.909229047262997

    Opposite-spin MP2 correlation energy      =   -0.325116217331816
    Same-spin MP2 correlation energy          =   -0.100370460571890
    Singles MP2 correlation energy            =   -0.000000000000000
    MP2 correlation energy                    =   -0.425486677903706
      * MP2 total energy                      = -114.334715725166703

    Opposite-spin CCSD correlation energy     =   -0.347263793378918
    Same-spin CCSD correlation energy         =   -0.088153201329745
    Singles CCSD correlation energy           =    0.000000000000000
    CCSD correlation energy                   =   -0.435416994708663
      * CCSD total energy                     = -114.344646041971657

            **************************
            *                        *
            *        CCTRIPLES       *
            *                        *
            **************************


    Wave function   =    CCSD_T
    Reference wfn   =      RHF

    Nuclear Rep. energy (wfn)                =   30.944277666154122
    SCF energy          (wfn)                = -113.909229047263253
    Reference energy    (file100)            = -113.909229047262997
    CCSD energy         (file100)            =   -0.435416994708663
    Total CCSD energy   (file100)            = -114.344646041971657

    Number of ijk index combinations:              120
    Memory available in words               :        65536000
    Approx. words needed per explicit thread:         2048000
    Number of threads for explicit ijk threading:    1

    (T) energy                                =   -0.017318530857466
      * CCSD(T) total energy                  = -114.361964572829123


    Psi4 stopped on: Tuesday, 14 May 2024 02:29PM
    Psi4 wall time for execution: 0:00:12.01


    -----------------------------------------------------------------------
          Psi4: An Open-Source Ab Initio Electronic Structure Package
                               Psi4 1.9.1 release

                         Git: Rev {} zzzzzzz 


    D. G. A. Smith, L. A. Burns, A. C. Simmonett, R. M. Parrish,
    M. C. Schieber, R. Galvelis, P. Kraus, H. Kruse, R. Di Remigio,
    A. Alenaizan, A. M. James, S. Lehtola, J. P. Misiewicz, M. Scheurer,
    R. A. Shaw, J. B. Schriber, Y. Xie, Z. L. Glick, D. A. Sirianni,
    J. S. O'Brien, J. M. Waldrop, A. Kumar, E. G. Hohenstein,
    B. P. Pritchard, B. R. Brooks, H. F. Schaefer III, A. Yu. Sokolov,
    K. Patkowski, A. E. DePrince III, U. Bozkaya, R. A. King,
    F. A. Evangelista, J. M. Turney, T. D. Crawford, C. D. Sherrill,
    J. Chem. Phys. 152(18) 184108 (2020). https://doi.org/10.1063/5.0006002

                            Additional Code Authors
    E. T. Seidl, C. L. Janssen, E. F. Valeev, M. L. Leininger,
    J. F. Gonthier, R. M. Richard, H. R. McAlexander, M. Saitow, X. Wang,
    P. Verma, M. H. Lechner, A. Jiang, S. Behnle, A. G. Heide,
    M. F. Herbst, and D. L. Poole

             Previous Authors, Complete List of Code Contributors,
                       and Citations for Specific Modules
    https://github.com/psi4/psi4/blob/master/codemeta.json
    https://github.com/psi4/psi4/graphs/contributors
    http://psicode.org/psi4manual/master/introduction.html#citing-psifour

    -----------------------------------------------------------------------


    Psi4 started on: Tuesday, 14 May 2024 02:28PM

    Process ID: 83709
    Host:       CHEMYY31VALT
    PSIDATADIR: /Users/jfoley19/miniforge3/envs/p4env/share/psi4
    Memory:     500.0 MiB
    Threads:    1
    
  ==> Input QCSchema <==

--------------------------------------------------------------------------
{'driver': 'energy',
 'extras': {'psiapi': True, 'wfn_qcvars_only': True},
 'id': None,
 'keywords': {'E_CONVERGENCE': 1e-08,
              'PARENT_SYMMETRY': 'C1',
              'SCF__D_CONVERGENCE': 1e-10,
              'SCF__E_CONVERGENCE': 1e-10,
              'function_kwargs': {'write_orbitals': False}},
 'model': {'basis': 'cc-pvtz', 'method': 'ccsd(t)'},
 'molecule': {'atom_labels': ['', '', '', ''],
              'atomic_numbers': [8, 6, 1, 1],
              'extras': {},
              'fix_com': True,
              'fix_orientation': True,
              'fragment_charges': [0.0],
              'fragment_multiplicities': [1],
              'fragments': [[0, 1, 2, 3]],
              'geometry': [1.1545054992276165, -1.2683387562071312e-05, 2.6037972220125637e-10, -1.1578237105231717,
                           -1.2701210167303016e-05, -2.611547287959485e-10, -2.2684157576022854, 0.4584348482726761,
                           -1.7003755681983848, -2.2684157513101004, -0.45808232257447656, 1.7003755671754943],
              'mass_numbers': [16, 12, 1, 1],
              'masses': [15.99491461957, 12.0, 1.00782503223, 1.00782503223],
              'molecular_charge': 0.0,
              'molecular_multiplicity': 1,
              'name': 'form',
              'provenance': {'creator': 'QCElemental',
                             'routine': 'qcelemental.molparse.from_string',
                             'version': '0.27.1'},
              'real': [True, True, True, True],
              'schema_name': 'qcschema_molecule',
              'schema_version': 2,
              'symbols': ['O', 'C', 'H', 'H'],
              'validated': True},
 'protocols': {'stdout': True},
 'provenance': {'creator': 'QCElemental', 'routine': 'qcelemental.models.results', 'version': '0.27.1'},
 'schema_name': 'qcschema_input',
 'schema_version': 1}
--------------------------------------------------------------------------

Scratch directory: /tmp/
   => Libint2 <=

    Primary   basis highest AM E, G, H:  6, 6, 3
    Auxiliary basis highest AM E, G, H:  7, 7, 4
    Onebody   basis highest AM E, G, H:  -, -, -
    Solid Harmonics ordering:            Gaussian

*** tstart() called on CHEMYY31VALT
*** at Tue May 14 14:29:07 2024

   => Loading Basis Set <=

    Name: CC-PVTZ
    Role: ORBITAL
    Keyword: BASIS
    atoms 1   entry O          line   262 file /Users/jfoley19/miniforge3/envs/p4env/share/psi4/basis/cc-pvtz.gbs 
    atoms 2   entry C          line   186 file /Users/jfoley19/miniforge3/envs/p4env/share/psi4/basis/cc-pvtz.gbs 
    atoms 3-4 entry H          line    23 file /Users/jfoley19/miniforge3/envs/p4env/share/psi4/basis/cc-pvtz.gbs 


         ---------------------------------------------------------
                                   SCF
               by Justin Turney, Rob Parrish, Andy Simmonett
                          and Daniel G. A. Smith
                              RHF Reference
                        1 Threads,    500 MiB Core
         ---------------------------------------------------------

  ==> Geometry <==

    Molecular point group: c1
    Full point group: C1

    Geometry (in Bohr), charge = 0, multiplicity = 1:

       Center              X                  Y                   Z               Mass       
    ------------   -----------------  -----------------  -----------------  -----------------
         O            1.154505499228    -0.000012683388     0.000000000260    15.994914619570
         C           -1.157823710523    -0.000012701210    -0.000000000261    12.000000000000
         H           -2.268415757602     0.458434848273    -1.700375568198     1.007825032230
         H           -2.268415751310    -0.458082322574     1.700375567175     1.007825032230

  Running in c1 symmetry.

  Rotational constants: A =      9.63027  B =      1.25999  C =      1.11421 [cm^-1]
  Rotational constants: A = 288708.18387  B =  37773.50215  C =  33403.15764 [MHz]
  Nuclear repulsion =   30.962443532683846

  Charge       = 0
  Multiplicity = 1
  Electrons    = 16
  Nalpha       = 8
  Nbeta        = 8

  ==> Algorithm <==

  SCF Algorithm Type is PK.
  DIIS enabled.
  MOM disabled.
  Fractional occupation disabled.
  Guess Type is SAD.
  Energy threshold   = 1.00e-10
  Density threshold  = 1.00e-10
  Integral threshold = 1.00e-12

  ==> Primary Basis <==

  Basis Set: CC-PVTZ
    Blend: CC-PVTZ
    Number of shells: 32
    Number of basis functions: 88
    Number of Cartesian functions: 100
    Spherical Harmonics?: true
    Max angular momentum: 3

  ==> Integral Setup <==

  Using in-core PK algorithm.
   Calculation information:
      Number of atoms:                   4
      Number of AO shells:              32
      Number of primitives:             68
      Number of atomic orbitals:       100
      Number of basis functions:        88

      Integral cutoff                 1.00e-12
      Number of threads:                 1

  Performing in-core PK
  Using 15338972 doubles for integral storage.
  We computed 139656 shell quartets total.
  Whereas there are 139656 unique shell quartets.

  ==> DiskJK: Disk-Based J/K Matrices <==

    J tasked:                  Yes
    K tasked:                  Yes
    wK tasked:                  No
    Memory [MiB]:              375
    Schwarz Cutoff:          1E-12

    OpenMP threads:              1

  Minimum eigenvalue in the overlap matrix is 2.1652350136E-03.
  Reciprocal condition number of the overlap matrix is 3.9642626509E-04.
    Using symmetric orthogonalization.

  ==> Pre-Iterations <==

  SCF Guess: Superposition of Atomic Densities via on-the-fly atomic UHF (no occupation information).

   -------------------------
    Irrep   Nso     Nmo    
   -------------------------
     A         88      88 
   -------------------------
    Total      88      88
   -------------------------

  ==> Iterations <==

                        Total Energy        Delta E     RMS |[F,P]|

   @RHF iter SAD:  -113.10734150280555   -1.13107e+02   0.00000e+00 
   @RHF iter   1:  -113.84733836437853   -7.39997e-01   4.34454e-03 DIIS/ADIIS
   @RHF iter   2:  -113.87338922279493   -2.60509e-02   3.71133e-03 DIIS/ADIIS
   @RHF iter   3:  -113.90878682316426   -3.53976e-02   2.79625e-04 DIIS/ADIIS
   @RHF iter   4:  -113.90932280539222   -5.35982e-04   6.95286e-05 DIIS
   @RHF iter   5:  -113.90936499440544   -4.21890e-05   3.00724e-05 DIIS
   @RHF iter   6:  -113.90937640898971   -1.14146e-05   1.51950e-05 DIIS
   @RHF iter   7:  -113.90937872363041   -2.31464e-06   3.62902e-06 DIIS
   @RHF iter   8:  -113.90937883693024   -1.13300e-07   4.25997e-07 DIIS
   @RHF iter   9:  -113.90937883851552   -1.58528e-09   8.95962e-08 DIIS
   @RHF iter  10:  -113.90937883857339   -5.78666e-11   1.41587e-08 DIIS
   @RHF iter  11:  -113.90937883857531   -1.91847e-12   1.56460e-09 DIIS
   @RHF iter  12:  -113.90937883857522    8.52651e-14   2.68549e-10 DIIS
   @RHF iter  13:  -113.90937883857491    3.12639e-13   4.40398e-11 DIIS
  Energy and wave function converged.


  ==> Post-Iterations <==

    Orbital Energies [Eh]
    ---------------------

    Doubly Occupied:                                                      

       1A    -20.576109     2A    -11.343360     3A     -1.392641  
       4A     -0.873104     5A     -0.688493     6A     -0.646282  
       7A     -0.527537     8A     -0.443889  

    Virtual:                                                              

       9A      0.113906    10A      0.146295    11A      0.205184  
      12A      0.268234    13A      0.439186    14A      0.444122  
      15A      0.457402    16A      0.588689    17A      0.619361  
      18A      0.682773    19A      0.705379    20A      0.728791  
      21A      0.867700    22A      0.894544    23A      0.940065  
      24A      1.020820    25A      1.070900    26A      1.177549  
      27A      1.196717    28A      1.216813    29A      1.330389  
      30A      1.330574    31A      1.470335    32A      1.651804  
      33A      1.776454    34A      1.944121    35A      2.003317  
      36A      2.158620    37A      2.293735    38A      2.319623  
      39A      2.350748    40A      2.478204    41A      2.633033  
      42A      2.829187    43A      2.871714    44A      2.928161  
      45A      3.018727    46A      3.122730    47A      3.172444  
      48A      3.219672    49A      3.266184    50A      3.418553  
      51A      3.452802    52A      3.484759    53A      3.604368  
      54A      3.614031    55A      3.626499    56A      3.680475  
      57A      3.908045    58A      4.017967    59A      4.132522  
      60A      4.173162    61A      4.200590    62A      4.253342  
      63A      4.409959    64A      4.499104    65A      4.745361  
      66A      4.774025    67A      4.919631    68A      5.045865  
      69A      5.061492    70A      5.062431    71A      5.370686  
      72A      5.399345    73A      5.597201    74A      5.658462  
      75A      5.664237    76A      6.057363    77A      6.094562  
      78A      6.250308    79A      6.570752    80A      6.584360  
      81A      6.853759    82A      6.883996    83A      7.284115  
      84A      7.371049    85A      7.506376    86A      7.508210  
      87A     10.973598    88A     13.260112  

    Final Occupation by Irrep:
              A 
    DOCC [     8 ]
    NA   [     8 ]
    NB   [     8 ]

  @RHF Final Energy:  -113.90937883857491

   => Energetics <=

    Nuclear Repulsion Energy =             30.9624435326838459
    One-Electron Energy =                -216.7608135956051569
    Two-Electron Energy =                  71.8889912243464124
    Total Energy =                       -113.9093788385749093

Computation Completed


Properties will be evaluated at   0.000000,   0.000000,   0.000000 [a0]

Properties computed using the SCF density matrix


 Multipole Moments:

 ------------------------------------------------------------------------------------
     Multipole            Electronic (a.u.)      Nuclear  (a.u.)        Total (a.u.)
 ------------------------------------------------------------------------------------

 L = 1.  Multiply by 2.5417464519 to convert [e a0] to [Debye]
 Dipole X            :          1.1117954           -2.2477298           -1.1359344
 Dipole Y            :         -0.0001464            0.0001749            0.0000284
 Dipole Z            :          0.0000231           -0.0000000            0.0000231
 Magnitude           :                                                    1.1359344

 ------------------------------------------------------------------------------------

*** tstop() called on CHEMYY31VALT at Tue May 14 14:29:08 2024
Module time:
	user time   =       0.60 seconds =       0.01 minutes
	system time =       0.02 seconds =       0.00 minutes
	total time  =          1 seconds =       0.02 minutes
Total time:
	user time   =       8.93 seconds =       0.15 minutes
	system time =       3.03 seconds =       0.05 minutes
	total time  =         13 seconds =       0.22 minutes
 MINTS: Wrapper to libmints.
   by Justin Turney

   Calculation information:
      Number of threads:                 1
      Number of atoms:                   4
      Number of AO shells:              32
      Number of SO shells:              32
      Number of primitives:             68
      Number of atomic orbitals:       100
      Number of basis functions:        88

      Number of irreps:                  1
      Integral cutoff                 1.00e-12
      Number of functions per irrep: [  88 ]

 OEINTS: Overlap, kinetic, potential, dipole, and quadrupole integrals
         stored in file 35.

      Computing two-electron integrals...done
      Computed 6925131 non-zero two-electron integrals.
        Stored in file 33.


*** tstart() called on CHEMYY31VALT
*** at Tue May 14 14:29:09 2024


	Wfn Parameters:
	--------------------
	Wavefunction         = CCSD_T
	Number of irreps     = 1
	Number of MOs        = 88
	Number of active MOs = 88
	AO-Basis             = NONE
	Semicanonical        = false
	Reference            = RHF
	Print Level          = 1

	IRREP	# MOs	# FZDC	# DOCC	# SOCC	# VIRT	# FZVR
	-----	-----	------	------	------	------	------
	 A	   88	    0	    8	    0	    80	    0
	Transforming integrals...
	IWL integrals will be deleted.
	(OO|OO)...
	Presorting SO-basis two-electron integrals.
	Sorting File: SO Ints (nn|nn) nbuckets = 1
	Constructing frozen core operators
	Starting first half-transformation.
	Sorting half-transformed integrals.
	First half integral transformation complete.
	Starting second half-transformation.
	Two-electron integral transformation complete.
	(OO|OV)...
	Starting second half-transformation.
	Two-electron integral transformation complete.
	(OO|VV)...
	Starting second half-transformation.
	Two-electron integral transformation complete.
	(OV|OO)...
	Starting first half-transformation.
	Sorting half-transformed integrals.
	First half integral transformation complete.
	Starting second half-transformation.
	Two-electron integral transformation complete.
	(OV|OV)...
	Starting second half-transformation.
	Two-electron integral transformation complete.
	(OV|VV)...
	Starting second half-transformation.
	Two-electron integral transformation complete.
	(VV|OO)...
	Starting first half-transformation.
	Sorting half-transformed integrals.
	First half integral transformation complete.
	Starting second half-transformation.
	Two-electron integral transformation complete.
	(VV|OV)...
	Starting second half-transformation.
	Two-electron integral transformation complete.
	(VV|VV)...
	Starting second half-transformation.
	Two-electron integral transformation complete.
	Frozen core energy     =      0.00000000000000

	Size of irrep 0 of <ab|cd> integrals:     40.960 (MW) /    327.680 (MB)
	Total:                                    40.960 (MW) /    327.680 (MB)

	Size of irrep 0 of <ia|bc> integrals:      4.096 (MW) /     32.768 (MB)
	Total:                                     4.096 (MW) /     32.768 (MB)

	Size of irrep 0 of tijab amplitudes:       0.410 (MW) /      3.277 (MB)
	Total:                                     0.410 (MW) /      3.277 (MB)

	Nuclear Rep. energy          =     30.96244353268385
	SCF energy                   =   -113.90937883857491
	One-electron energy          =   -216.76081358513002
	Two-electron energy          =     71.88899121387125
	Reference energy             =   -113.90937883857491

*** tstop() called on CHEMYY31VALT at Tue May 14 14:29:11 2024
Module time:
	user time   =       1.52 seconds =       0.03 minutes
	system time =       0.77 seconds =       0.01 minutes
	total time  =          2 seconds =       0.03 minutes
Total time:
	user time   =      10.71 seconds =       0.18 minutes
	system time =       3.92 seconds =       0.07 minutes
	total time  =         16 seconds =       0.27 minutes
            **************************
            *                        *
            *        CCENERGY        *
            *                        *
            **************************

    Nuclear Rep. energy (wfn)     =   30.962443532683846
    SCF energy          (wfn)     = -113.909378838574909
    Reference energy    (file100) = -113.909378838574909

    Input parameters:
    -----------------
    Wave function   =     CCSD_T
    Reference wfn   =     RHF
    Brueckner       =     No
    Memory (Mbytes) =     524.3
    Maxiter         =     50
    R_Convergence   =     1.0e-07
    E_Convergence   =     1.0e-08
    Restart         =     Yes
    DIIS            =     Yes
    AO Basis        =     NONE
    ABCD            =     NEW
    Cache Level     =     2
    Cache Type      =     LOW
    Print Level     =     1
    Num. of threads =     1
    # Amps to Print =     10
    Print MP2 Amps? =     No
    Analyze T2 Amps =     No
    Print Pair Ener =     No
    Local CC        =     No
    SCS-MP2         =     False
    SCSN-MP2        =     False
    SCS-CCSD        =     False

MP2 correlation energy -0.4253850234521562
                Solving CC Amplitude Equations
                ------------------------------
  Iter             Energy              RMS        T1Diag      D1Diag    New D1Diag    D2Diag
  ----     ---------------------    ---------   ----------  ----------  ----------   --------
     0        -0.425385023452156    0.000e+00    0.000000    0.000000    0.000000    0.163741
     1        -0.420457692920249    6.293e-02    0.011550    0.036316    0.036316    0.160162
     2        -0.432078964769676    2.552e-02    0.010966    0.035973    0.035973    0.173263
     3        -0.435579659377215    1.127e-02    0.013416    0.044893    0.044893    0.180881
     4        -0.435227831568512    2.985e-03    0.013785    0.046779    0.046779    0.182721
     5        -0.435329715176834    1.393e-03    0.014047    0.048043    0.048043    0.183920
     6        -0.435350313928289    3.523e-04    0.014099    0.048363    0.048363    0.184056
     7        -0.435339792191384    1.281e-04    0.014103    0.048425    0.048425    0.184042
     8        -0.435338956049452    4.388e-05    0.014108    0.048463    0.048463    0.184042
     9        -0.435339157575339    1.177e-05    0.014109    0.048469    0.048469    0.184040
    10        -0.435338475603452    4.075e-06    0.014108    0.048470    0.048470    0.184039
    11        -0.435338709817214    1.575e-06    0.014108    0.048470    0.048470    0.184039
    12        -0.435338641064238    4.644e-07    0.014108    0.048470    0.048470    0.184039
    13        -0.435338661912125    2.077e-07    0.014108    0.048469    0.048469    0.184039
    14        -0.435338664106779    4.392e-08    0.014108    0.048469    0.048469    0.184039
    15        -0.435338663600524    1.660e-08    0.014108    0.048469    0.048469    0.184039

    Iterations converged.


    Largest TIA Amplitudes:
              6   0        -0.0360219036
              6   5        -0.0244307485
              7   2        -0.0127211573
              6  12         0.0126778236
              4   8        -0.0112567333
              6  19         0.0105157851
              7   6        -0.0085115938
              7   8        -0.0083658867
              6  27         0.0079407536
              4   6        -0.0076037848

    Largest TIjAb Amplitudes:
      6   6   0   0        -0.1134015804
      6   6   0  12        -0.0371747949
      6   6  12   0        -0.0371747949
      6   6   0   5        -0.0310817413
      6   6   5   0        -0.0310817413
      3   3   0   0        -0.0286666782
      4   4   8   8        -0.0262146897
      5   6   9   0        -0.0260389215
      6   5   0   9        -0.0260389215
      5   5   9   9        -0.0246022023

    SCF energy       (wfn)                    = -113.909378838574909
    Reference energy (file100)                = -113.909378838574909

    Opposite-spin MP2 correlation energy      =   -0.325040745643491
    Same-spin MP2 correlation energy          =   -0.100344277808665
    Singles MP2 correlation energy            =   -0.000000000000000
    MP2 correlation energy                    =   -0.425385023452156
      * MP2 total energy                      = -114.334763862027060

    Opposite-spin CCSD correlation energy     =   -0.347190307462348
    Same-spin CCSD correlation energy         =   -0.088148356138176
    Singles CCSD correlation energy           =    0.000000000000000
    CCSD correlation energy                   =   -0.435338663600524
      * CCSD total energy                     = -114.344717502175428

            **************************
            *                        *
            *        CCTRIPLES       *
            *                        *
            **************************


    Wave function   =    CCSD_T
    Reference wfn   =      RHF

    Nuclear Rep. energy (wfn)                =   30.962443532683846
    SCF energy          (wfn)                = -113.909378838574909
    Reference energy    (file100)            = -113.909378838574909
    CCSD energy         (file100)            =   -0.435338663600524
    Total CCSD energy   (file100)            = -114.344717502175428

    Number of ijk index combinations:              120
    Memory available in words               :        65536000
    Approx. words needed per explicit thread:         2048000
    Number of threads for explicit ijk threading:    1

    (T) energy                                =   -0.017297610846566
      * CCSD(T) total energy                  = -114.362015113021997


    Psi4 stopped on: Tuesday, 14 May 2024 02:29PM
    Psi4 wall time for execution: 0:00:11.81


    -----------------------------------------------------------------------
          Psi4: An Open-Source Ab Initio Electronic Structure Package
                               Psi4 1.9.1 release

                         Git: Rev {} zzzzzzz 


    D. G. A. Smith, L. A. Burns, A. C. Simmonett, R. M. Parrish,
    M. C. Schieber, R. Galvelis, P. Kraus, H. Kruse, R. Di Remigio,
    A. Alenaizan, A. M. James, S. Lehtola, J. P. Misiewicz, M. Scheurer,
    R. A. Shaw, J. B. Schriber, Y. Xie, Z. L. Glick, D. A. Sirianni,
    J. S. O'Brien, J. M. Waldrop, A. Kumar, E. G. Hohenstein,
    B. P. Pritchard, B. R. Brooks, H. F. Schaefer III, A. Yu. Sokolov,
    K. Patkowski, A. E. DePrince III, U. Bozkaya, R. A. King,
    F. A. Evangelista, J. M. Turney, T. D. Crawford, C. D. Sherrill,
    J. Chem. Phys. 152(18) 184108 (2020). https://doi.org/10.1063/5.0006002

                            Additional Code Authors
    E. T. Seidl, C. L. Janssen, E. F. Valeev, M. L. Leininger,
    J. F. Gonthier, R. M. Richard, H. R. McAlexander, M. Saitow, X. Wang,
    P. Verma, M. H. Lechner, A. Jiang, S. Behnle, A. G. Heide,
    M. F. Herbst, and D. L. Poole

             Previous Authors, Complete List of Code Contributors,
                       and Citations for Specific Modules
    https://github.com/psi4/psi4/blob/master/codemeta.json
    https://github.com/psi4/psi4/graphs/contributors
    http://psicode.org/psi4manual/master/introduction.html#citing-psifour

    -----------------------------------------------------------------------


    Psi4 started on: Tuesday, 14 May 2024 02:28PM

    Process ID: 83709
    Host:       CHEMYY31VALT
    PSIDATADIR: /Users/jfoley19/miniforge3/envs/p4env/share/psi4
    Memory:     500.0 MiB
    Threads:    1
    
  ==> Input QCSchema <==

--------------------------------------------------------------------------
{'driver': 'energy',
 'extras': {'psiapi': True, 'wfn_qcvars_only': True},
 'id': None,
 'keywords': {'E_CONVERGENCE': 1e-08,
              'PARENT_SYMMETRY': 'C1',
              'SCF__D_CONVERGENCE': 1e-10,
              'SCF__E_CONVERGENCE': 1e-10,
              'function_kwargs': {'write_orbitals': False}},
 'model': {'basis': 'cc-pvtz', 'method': 'ccsd(t)'},
 'molecule': {'atom_labels': ['', '', '', ''],
              'atomic_numbers': [8, 6, 1, 1],
              'extras': {},
              'fix_com': True,
              'fix_orientation': True,
              'fragment_charges': [0.0],
              'fragment_multiplicities': [1],
              'fragments': [[0, 1, 2, 3]],
              'geometry': [1.1562142494185998, -1.2701183682719948e-05, -2.6037972220125637e-10, -1.159773767301924,
                           -1.2683361077488244e-05, 2.611547287959485e-10, -2.2703658080859417, 0.45843488322821735,
                           -1.700375567175523, -2.2703658143781262, -0.4580822876187234, 1.7003755681984134],
              'mass_numbers': [16, 12, 1, 1],
              'masses': [15.99491461957, 12.0, 1.00782503223, 1.00782503223],
              'molecular_charge': 0.0,
              'molecular_multiplicity': 1,
              'name': 'form',
              'provenance': {'creator': 'QCElemental',
                             'routine': 'qcelemental.molparse.from_string',
                             'version': '0.27.1'},
              'real': [True, True, True, True],
              'schema_name': 'qcschema_molecule',
              'schema_version': 2,
              'symbols': ['O', 'C', 'H', 'H'],
              'validated': True},
 'protocols': {'stdout': True},
 'provenance': {'creator': 'QCElemental', 'routine': 'qcelemental.models.results', 'version': '0.27.1'},
 'schema_name': 'qcschema_input',
 'schema_version': 1}
--------------------------------------------------------------------------

Scratch directory: /tmp/
   => Libint2 <=

    Primary   basis highest AM E, G, H:  6, 6, 3
    Auxiliary basis highest AM E, G, H:  7, 7, 4
    Onebody   basis highest AM E, G, H:  -, -, -
    Solid Harmonics ordering:            Gaussian

*** tstart() called on CHEMYY31VALT
*** at Tue May 14 14:29:19 2024

   => Loading Basis Set <=

    Name: CC-PVTZ
    Role: ORBITAL
    Keyword: BASIS
    atoms 1   entry O          line   262 file /Users/jfoley19/miniforge3/envs/p4env/share/psi4/basis/cc-pvtz.gbs 
    atoms 2   entry C          line   186 file /Users/jfoley19/miniforge3/envs/p4env/share/psi4/basis/cc-pvtz.gbs 
    atoms 3-4 entry H          line    23 file /Users/jfoley19/miniforge3/envs/p4env/share/psi4/basis/cc-pvtz.gbs 


         ---------------------------------------------------------
                                   SCF
               by Justin Turney, Rob Parrish, Andy Simmonett
                          and Daniel G. A. Smith
                              RHF Reference
                        1 Threads,    500 MiB Core
         ---------------------------------------------------------

  ==> Geometry <==

    Molecular point group: c1
    Full point group: C1

    Geometry (in Bohr), charge = 0, multiplicity = 1:

       Center              X                  Y                   Z               Mass       
    ------------   -----------------  -----------------  -----------------  -----------------
         O            1.156214249419    -0.000012701184    -0.000000000260    15.994914619570
         C           -1.159773767302    -0.000012683361     0.000000000261    12.000000000000
         H           -2.270365808086     0.458434883228    -1.700375567176     1.007825032230
         H           -2.270365814378    -0.458082287619     1.700375568198     1.007825032230

  Running in c1 symmetry.

  Rotational constants: A =      9.63027  B =      1.25643  C =      1.11143 [cm^-1]
  Rotational constants: A = 288708.18387  B =  37666.89145  C =  33319.76203 [MHz]
  Nuclear repulsion =   30.926139011162221

  Charge       = 0
  Multiplicity = 1
  Electrons    = 16
  Nalpha       = 8
  Nbeta        = 8

  ==> Algorithm <==

  SCF Algorithm Type is PK.
  DIIS enabled.
  MOM disabled.
  Fractional occupation disabled.
  Guess Type is SAD.
  Energy threshold   = 1.00e-10
  Density threshold  = 1.00e-10
  Integral threshold = 1.00e-12

  ==> Primary Basis <==

  Basis Set: CC-PVTZ
    Blend: CC-PVTZ
    Number of shells: 32
    Number of basis functions: 88
    Number of Cartesian functions: 100
    Spherical Harmonics?: true
    Max angular momentum: 3

  ==> Integral Setup <==

  Using in-core PK algorithm.
   Calculation information:
      Number of atoms:                   4
      Number of AO shells:              32
      Number of primitives:             68
      Number of atomic orbitals:       100
      Number of basis functions:        88

      Integral cutoff                 1.00e-12
      Number of threads:                 1

  Performing in-core PK
  Using 15338972 doubles for integral storage.
  We computed 139656 shell quartets total.
  Whereas there are 139656 unique shell quartets.

  ==> DiskJK: Disk-Based J/K Matrices <==

    J tasked:                  Yes
    K tasked:                  Yes
    wK tasked:                  No
    Memory [MiB]:              375
    Schwarz Cutoff:          1E-12

    OpenMP threads:              1

  Minimum eigenvalue in the overlap matrix is 2.1655823617E-03.
  Reciprocal condition number of the overlap matrix is 3.9664335849E-04.
    Using symmetric orthogonalization.

  ==> Pre-Iterations <==

  SCF Guess: Superposition of Atomic Densities via on-the-fly atomic UHF (no occupation information).

   -------------------------
    Irrep   Nso     Nmo    
   -------------------------
     A         88      88 
   -------------------------
    Total      88      88
   -------------------------

  ==> Iterations <==

                        Total Energy        Delta E     RMS |[F,P]|

   @RHF iter SAD:  -113.10316097705062   -1.13103e+02   0.00000e+00 
   @RHF iter   1:  -113.84686633371599   -7.43705e-01   4.34837e-03 DIIS/ADIIS
   @RHF iter   2:  -113.87279255731251   -2.59262e-02   3.72461e-03 DIIS/ADIIS
   @RHF iter   3:  -113.90848256721476   -3.56900e-02   2.79806e-04 DIIS/ADIIS
   @RHF iter   4:  -113.90902029170071   -5.37724e-04   6.95240e-05 DIIS
   @RHF iter   5:  -113.90906270391528   -4.24122e-05   3.01185e-05 DIIS
   @RHF iter   6:  -113.90907417785770   -1.14739e-05   1.52552e-05 DIIS
   @RHF iter   7:  -113.90907651253463   -2.33468e-06   3.67327e-06 DIIS
   @RHF iter   8:  -113.90907662908563   -1.16551e-07   4.34948e-07 DIIS
   @RHF iter   9:  -113.90907663074817   -1.66254e-09   9.15108e-08 DIIS
   @RHF iter  10:  -113.90907663080864   -6.04672e-11   1.43409e-08 DIIS
   @RHF iter  11:  -113.90907663081066   -2.01794e-12   1.58209e-09 DIIS
   @RHF iter  12:  -113.90907663081066    0.00000e+00   2.71968e-10 DIIS
   @RHF iter  13:  -113.90907663081062    4.26326e-14   4.49644e-11 DIIS
  Energy and wave function converged.


  ==> Post-Iterations <==

    Orbital Energies [Eh]
    ---------------------

    Doubly Occupied:                                                      

       1A    -20.576235     2A    -11.343760     3A     -1.391419  
       4A     -0.873443     5A     -0.688125     6A     -0.645769  
       7A     -0.526748     8A     -0.444140  

    Virtual:                                                              

       9A      0.113363    10A      0.146189    11A      0.205036  
      12A      0.268162    13A      0.439129    14A      0.444142  
      15A      0.457399    16A      0.588555    17A      0.619062  
      18A      0.682451    19A      0.705295    20A      0.727722  
      21A      0.867848    22A      0.894615    23A      0.939588  
      24A      1.020856    25A      1.070838    26A      1.177579  
      27A      1.195785    28A      1.216490    29A      1.329602  
      30A      1.330139    31A      1.470344    32A      1.651614  
      33A      1.775855    34A      1.943423    35A      2.002828  
      36A      2.157344    37A      2.292682    38A      2.320750  
      39A      2.350991    40A      2.476914    41A      2.632961  
      42A      2.827766    43A      2.871714    44A      2.927841  
      45A      3.018365    46A      3.122987    47A      3.172510  
      48A      3.220238    49A      3.266205    50A      3.417138  
      51A      3.452192    52A      3.482910    53A      3.604018  
      54A      3.613458    55A      3.626096    56A      3.678203  
      57A      3.907636    58A      4.017381    59A      4.131738  
      60A      4.172656    61A      4.200497    62A      4.252949  
      63A      4.407267    64A      4.497615    65A      4.742406  
      66A      4.773291    67A      4.920073    68A      5.046053  
      69A      5.061044    70A      5.061931    71A      5.371278  
      72A      5.398012    73A      5.596093    74A      5.657757  
      75A      5.663344    76A      6.056792    77A      6.091499  
      78A      6.246589    79A      6.565695    80A      6.580430  
      81A      6.853261    82A      6.883337    83A      7.283550  
      84A      7.366365    85A      7.504973    86A      7.505896  
      87A     10.965603    88A     13.235686  

    Final Occupation by Irrep:
              A 
    DOCC [     8 ]
    NA   [     8 ]
    NB   [     8 ]

  @RHF Final Energy:  -113.90907663081062

   => Energetics <=

    Nuclear Repulsion Energy =             30.9261390111622205
    One-Electron Energy =                -216.6911544926389297
    Two-Electron Energy =                  71.8559388506661065
    Total Energy =                       -113.9090766308106168

Computation Completed


Properties will be evaluated at   0.000000,   0.000000,   0.000000 [a0]

Properties computed using the SCF density matrix


 Multipole Moments:

 ------------------------------------------------------------------------------------
     Multipole            Electronic (a.u.)      Nuclear  (a.u.)        Total (a.u.)
 ------------------------------------------------------------------------------------

 L = 1.  Multiply by 2.5417464519 to convert [e a0] to [Debye]
 Dipole X            :          1.1098121           -2.2496602           -1.1398481
 Dipole Y            :         -0.0001463            0.0001749            0.0000286
 Dipole Z            :          0.0000230            0.0000000            0.0000230
 Magnitude           :                                                    1.1398481

 ------------------------------------------------------------------------------------

*** tstop() called on CHEMYY31VALT at Tue May 14 14:29:20 2024
Module time:
	user time   =       0.60 seconds =       0.01 minutes
	system time =       0.02 seconds =       0.00 minutes
	total time  =          1 seconds =       0.02 minutes
Total time:
	user time   =      17.18 seconds =       0.29 minutes
	system time =       6.04 seconds =       0.10 minutes
	total time  =         25 seconds =       0.42 minutes
 MINTS: Wrapper to libmints.
   by Justin Turney

   Calculation information:
      Number of threads:                 1
      Number of atoms:                   4
      Number of AO shells:              32
      Number of SO shells:              32
      Number of primitives:             68
      Number of atomic orbitals:       100
      Number of basis functions:        88

      Number of irreps:                  1
      Integral cutoff                 1.00e-12
      Number of functions per irrep: [  88 ]

 OEINTS: Overlap, kinetic, potential, dipole, and quadrupole integrals
         stored in file 35.

      Computing two-electron integrals...done
      Computed 6924674 non-zero two-electron integrals.
        Stored in file 33.


*** tstart() called on CHEMYY31VALT
*** at Tue May 14 14:29:20 2024


	Wfn Parameters:
	--------------------
	Wavefunction         = CCSD_T
	Number of irreps     = 1
	Number of MOs        = 88
	Number of active MOs = 88
	AO-Basis             = NONE
	Semicanonical        = false
	Reference            = RHF
	Print Level          = 1

	IRREP	# MOs	# FZDC	# DOCC	# SOCC	# VIRT	# FZVR
	-----	-----	------	------	------	------	------
	 A	   88	    0	    8	    0	    80	    0
	Transforming integrals...
	IWL integrals will be deleted.
	(OO|OO)...
	Presorting SO-basis two-electron integrals.
	Sorting File: SO Ints (nn|nn) nbuckets = 1
	Constructing frozen core operators
	Starting first half-transformation.
	Sorting half-transformed integrals.
	First half integral transformation complete.
	Starting second half-transformation.
	Two-electron integral transformation complete.
	(OO|OV)...
	Starting second half-transformation.
	Two-electron integral transformation complete.
	(OO|VV)...
	Starting second half-transformation.
	Two-electron integral transformation complete.
	(OV|OO)...
	Starting first half-transformation.
	Sorting half-transformed integrals.
	First half integral transformation complete.
	Starting second half-transformation.
	Two-electron integral transformation complete.
	(OV|OV)...
	Starting second half-transformation.
	Two-electron integral transformation complete.
	(OV|VV)...
	Starting second half-transformation.
	Two-electron integral transformation complete.
	(VV|OO)...
	Starting first half-transformation.
	Sorting half-transformed integrals.
	First half integral transformation complete.
	Starting second half-transformation.
	Two-electron integral transformation complete.
	(VV|OV)...
	Starting second half-transformation.
	Two-electron integral transformation complete.
	(VV|VV)...
	Starting second half-transformation.
	Two-electron integral transformation complete.
	Frozen core energy     =      0.00000000000000

	Size of irrep 0 of <ab|cd> integrals:     40.960 (MW) /    327.680 (MB)
	Total:                                    40.960 (MW) /    327.680 (MB)

	Size of irrep 0 of <ia|bc> integrals:      4.096 (MW) /     32.768 (MB)
	Total:                                     4.096 (MW) /     32.768 (MB)

	Size of irrep 0 of tijab amplitudes:       0.410 (MW) /      3.277 (MB)
	Total:                                     0.410 (MW) /      3.277 (MB)

	Nuclear Rep. energy          =     30.92613901116222
	SCF energy                   =   -113.90907663081062
	One-electron energy          =   -216.69115448199125
	Two-electron energy          =     71.85593884001833
	Reference energy             =   -113.90907663081070

*** tstop() called on CHEMYY31VALT at Tue May 14 14:29:23 2024
Module time:
	user time   =       1.51 seconds =       0.03 minutes
	system time =       0.79 seconds =       0.01 minutes
	total time  =          3 seconds =       0.05 minutes
Total time:
	user time   =      18.95 seconds =       0.32 minutes
	system time =       6.95 seconds =       0.12 minutes
	total time  =         28 seconds =       0.47 minutes
            **************************
            *                        *
            *        CCENERGY        *
            *                        *
            **************************

    Nuclear Rep. energy (wfn)     =   30.926139011162221
    SCF energy          (wfn)     = -113.909076630810617
    Reference energy    (file100) = -113.909076630810702

    Input parameters:
    -----------------
    Wave function   =     CCSD_T
    Reference wfn   =     RHF
    Brueckner       =     No
    Memory (Mbytes) =     524.3
    Maxiter         =     50
    R_Convergence   =     1.0e-07
    E_Convergence   =     1.0e-08
    Restart         =     Yes
    DIIS            =     Yes
    AO Basis        =     NONE
    ABCD            =     NEW
    Cache Level     =     2
    Cache Type      =     LOW
    Print Level     =     1
    Num. of threads =     1
    # Amps to Print =     10
    Print MP2 Amps? =     No
    Analyze T2 Amps =     No
    Print Pair Ener =     No
    Local CC        =     No
    SCS-MP2         =     False
    SCSN-MP2        =     False
    SCS-CCSD        =     False

MP2 correlation energy -0.4255884653975587
                Solving CC Amplitude Equations
                ------------------------------
  Iter             Energy              RMS        T1Diag      D1Diag    New D1Diag    D2Diag
  ----     ---------------------    ---------   ----------  ----------  ----------   --------
     0        -0.425588465397559    0.000e+00    0.000000    0.000000    0.000000    0.164016
     1        -0.420556119576351    6.313e-02    0.011598    0.036513    0.036513    0.160368
     2        -0.432214409170967    2.565e-02    0.011006    0.036148    0.036148    0.173535
     3        -0.435737038667567    1.133e-02    0.013473    0.045142    0.045142    0.181213
     4        -0.435383431091848    3.009e-03    0.013846    0.047048    0.047048    0.183073
     5        -0.435486531915333    1.407e-03    0.014112    0.048328    0.048328    0.184286
     6        -0.435507206981726    3.556e-04    0.014164    0.048652    0.048652    0.184423
     7        -0.435496548332196    1.294e-04    0.014169    0.048715    0.048715    0.184409
     8        -0.435495703129475    4.438e-05    0.014174    0.048753    0.048753    0.184409
     9        -0.435495905775163    1.190e-05    0.014174    0.048759    0.048759    0.184407
    10        -0.435495214759652    4.123e-06    0.014174    0.048760    0.048760    0.184406
    11        -0.435495452315063    1.592e-06    0.014174    0.048760    0.048760    0.184407
    12        -0.435495382423771    4.704e-07    0.014174    0.048760    0.048760    0.184406
    13        -0.435495403536266    2.105e-07    0.014174    0.048760    0.048760    0.184407
    14        -0.435495405765818    4.450e-08    0.014174    0.048760    0.048760    0.184407
    15        -0.435495405236395    1.684e-08    0.014174    0.048760    0.048760    0.184407

    Iterations converged.


    Largest TIA Amplitudes:
              6   0        -0.0362971861
              6   5        -0.0245402445
              6  12         0.0127728804
              7   2        -0.0127461718
              4   8        -0.0112251736
              6  19         0.0105404316
              7   6        -0.0085600384
              7   8        -0.0083794685
              6  27         0.0079652222
              4   6        -0.0076299674

    Largest TIjAb Amplitudes:
      6   6   0   0        -0.1138605698
      6   6   0  12        -0.0372898851
      6   6  12   0        -0.0372898851
      6   6   0   5        -0.0310811918
      6   6   5   0        -0.0310811918
      3   3   0   0        -0.0286876766
      5   6   9   0        -0.0264607054
      6   5   0   9        -0.0264607054
      4   4   8   8        -0.0262819485
      5   5   9   9        -0.0249208603

    SCF energy       (wfn)                    = -113.909076630810617
    Reference energy (file100)                = -113.909076630810702

    Opposite-spin MP2 correlation energy      =   -0.325191779890769
    Same-spin MP2 correlation energy          =   -0.100396685506790
    Singles MP2 correlation energy            =   -0.000000000000000
    MP2 correlation energy                    =   -0.425588465397559
      * MP2 total energy                      = -114.334665096208255

    Opposite-spin CCSD correlation energy     =   -0.347337351748849
    Same-spin CCSD correlation energy         =   -0.088158053487545
    Singles CCSD correlation energy           =    0.000000000000000
    CCSD correlation energy                   =   -0.435495405236395
      * CCSD total energy                     = -114.344572036047097

            **************************
            *                        *
            *        CCTRIPLES       *
            *                        *
            **************************


    Wave function   =    CCSD_T
    Reference wfn   =      RHF

    Nuclear Rep. energy (wfn)                =   30.926139011162221
    SCF energy          (wfn)                = -113.909076630810617
    Reference energy    (file100)            = -113.909076630810702
    CCSD energy         (file100)            =   -0.435495405236395
    Total CCSD energy   (file100)            = -114.344572036047097

    Number of ijk index combinations:              120
    Memory available in words               :        65536000
    Approx. words needed per explicit thread:         2048000
    Number of threads for explicit ijk threading:    1

    (T) energy                                =   -0.017339492853314
      * CCSD(T) total energy                  = -114.361911528900407


    Psi4 stopped on: Tuesday, 14 May 2024 02:29PM
    Psi4 wall time for execution: 0:00:11.85


    -----------------------------------------------------------------------
          Psi4: An Open-Source Ab Initio Electronic Structure Package
                               Psi4 1.9.1 release

                         Git: Rev {} zzzzzzz 


    D. G. A. Smith, L. A. Burns, A. C. Simmonett, R. M. Parrish,
    M. C. Schieber, R. Galvelis, P. Kraus, H. Kruse, R. Di Remigio,
    A. Alenaizan, A. M. James, S. Lehtola, J. P. Misiewicz, M. Scheurer,
    R. A. Shaw, J. B. Schriber, Y. Xie, Z. L. Glick, D. A. Sirianni,
    J. S. O'Brien, J. M. Waldrop, A. Kumar, E. G. Hohenstein,
    B. P. Pritchard, B. R. Brooks, H. F. Schaefer III, A. Yu. Sokolov,
    K. Patkowski, A. E. DePrince III, U. Bozkaya, R. A. King,
    F. A. Evangelista, J. M. Turney, T. D. Crawford, C. D. Sherrill,
    J. Chem. Phys. 152(18) 184108 (2020). https://doi.org/10.1063/5.0006002

                            Additional Code Authors
    E. T. Seidl, C. L. Janssen, E. F. Valeev, M. L. Leininger,
    J. F. Gonthier, R. M. Richard, H. R. McAlexander, M. Saitow, X. Wang,
    P. Verma, M. H. Lechner, A. Jiang, S. Behnle, A. G. Heide,
    M. F. Herbst, and D. L. Poole

             Previous Authors, Complete List of Code Contributors,
                       and Citations for Specific Modules
    https://github.com/psi4/psi4/blob/master/codemeta.json
    https://github.com/psi4/psi4/graphs/contributors
    http://psicode.org/psi4manual/master/introduction.html#citing-psifour

    -----------------------------------------------------------------------


    Psi4 started on: Tuesday, 14 May 2024 02:28PM

    Process ID: 83709
    Host:       CHEMYY31VALT
    PSIDATADIR: /Users/jfoley19/miniforge3/envs/p4env/share/psi4
    Memory:     500.0 MiB
    Threads:    1
    
  ==> Input QCSchema <==

--------------------------------------------------------------------------
{'driver': 'energy',
 'extras': {'psiapi': True, 'wfn_qcvars_only': True},
 'id': None,
 'keywords': {'E_CONVERGENCE': 1e-08,
              'PARENT_SYMMETRY': 'C1',
              'SCF__D_CONVERGENCE': 1e-10,
              'SCF__E_CONVERGENCE': 1e-10,
              'function_kwargs': {'write_orbitals': False}},
 'model': {'basis': 'cc-pvtz', 'method': 'ccsd(t)'},
 'molecule': {'atom_labels': ['', '', '', ''],
              'atomic_numbers': [8, 6, 1, 1],
              'extras': {},
              'fix_com': True,
              'fix_orientation': True,
              'fragment_charges': [0.0],
              'fragment_multiplicities': [1],
              'fragments': [[0, 1, 2, 3]],
              'geometry': [1.155359874323108, -0.0002074548686410313, 0.0001039746956499996, -1.1587986553331338,
                           0.0007007705306878936, -0.0001042841708815139, -2.270647576516016, 0.45573285891233634,
                           -1.700579792041836, -2.2681349843379754, -0.46078435425539455, 1.700171331926464],
              'mass_numbers': [16, 12, 1, 1],
              'masses': [15.99491461957, 12.0, 1.00782503223, 1.00782503223],
              'molecular_charge': 0.0,
              'molecular_multiplicity': 1,
              'name': 'form',
              'provenance': {'creator': 'QCElemental',
                             'routine': 'qcelemental.molparse.from_string',
                             'version': '0.27.1'},
              'real': [True, True, True, True],
              'schema_name': 'qcschema_molecule',
              'schema_version': 2,
              'symbols': ['O', 'C', 'H', 'H'],
              'validated': True},
 'protocols': {'stdout': True},
 'provenance': {'creator': 'QCElemental', 'routine': 'qcelemental.models.results', 'version': '0.27.1'},
 'schema_name': 'qcschema_input',
 'schema_version': 1}
--------------------------------------------------------------------------

Scratch directory: /tmp/
   => Libint2 <=

    Primary   basis highest AM E, G, H:  6, 6, 3
    Auxiliary basis highest AM E, G, H:  7, 7, 4
    Onebody   basis highest AM E, G, H:  -, -, -
    Solid Harmonics ordering:            Gaussian

*** tstart() called on CHEMYY31VALT
*** at Tue May 14 14:29:31 2024

   => Loading Basis Set <=

    Name: CC-PVTZ
    Role: ORBITAL
    Keyword: BASIS
    atoms 1   entry O          line   262 file /Users/jfoley19/miniforge3/envs/p4env/share/psi4/basis/cc-pvtz.gbs 
    atoms 2   entry C          line   186 file /Users/jfoley19/miniforge3/envs/p4env/share/psi4/basis/cc-pvtz.gbs 
    atoms 3-4 entry H          line    23 file /Users/jfoley19/miniforge3/envs/p4env/share/psi4/basis/cc-pvtz.gbs 


         ---------------------------------------------------------
                                   SCF
               by Justin Turney, Rob Parrish, Andy Simmonett
                          and Daniel G. A. Smith
                              RHF Reference
                        1 Threads,    500 MiB Core
         ---------------------------------------------------------

  ==> Geometry <==

    Molecular point group: c1
    Full point group: C1

    Geometry (in Bohr), charge = 0, multiplicity = 1:

       Center              X                  Y                   Z               Mass       
    ------------   -----------------  -----------------  -----------------  -----------------
         O            1.155359874323    -0.000207454869     0.000103974696    15.994914619570
         C           -1.158798655333     0.000700770531    -0.000104284171    12.000000000000
         H           -2.270647576516     0.455732858912    -1.700579792042     1.007825032230
         H           -2.268134984338    -0.460784354255     1.700171331926     1.007825032230

  Running in c1 symmetry.

  Rotational constants: A =      9.63024  B =      1.25821  C =      1.11282 [cm^-1]
  Rotational constants: A = 288707.36402  B =  37720.12115  C =  33361.41871 [MHz]
  Nuclear repulsion =   30.944266791665651

  Charge       = 0
  Multiplicity = 1
  Electrons    = 16
  Nalpha       = 8
  Nbeta        = 8

  ==> Algorithm <==

  SCF Algorithm Type is PK.
  DIIS enabled.
  MOM disabled.
  Fractional occupation disabled.
  Guess Type is SAD.
  Energy threshold   = 1.00e-10
  Density threshold  = 1.00e-10
  Integral threshold = 1.00e-12

  ==> Primary Basis <==

  Basis Set: CC-PVTZ
    Blend: CC-PVTZ
    Number of shells: 32
    Number of basis functions: 88
    Number of Cartesian functions: 100
    Spherical Harmonics?: true
    Max angular momentum: 3

  ==> Integral Setup <==

  Using in-core PK algorithm.
   Calculation information:
      Number of atoms:                   4
      Number of AO shells:              32
      Number of primitives:             68
      Number of atomic orbitals:       100
      Number of basis functions:        88

      Integral cutoff                 1.00e-12
      Number of threads:                 1

  Performing in-core PK
  Using 15338972 doubles for integral storage.
  We computed 139656 shell quartets total.
  Whereas there are 139656 unique shell quartets.

  ==> DiskJK: Disk-Based J/K Matrices <==

    J tasked:                  Yes
    K tasked:                  Yes
    wK tasked:                  No
    Memory [MiB]:              375
    Schwarz Cutoff:          1E-12

    OpenMP threads:              1

  Minimum eigenvalue in the overlap matrix is 2.1654193479E-03.
  Reciprocal condition number of the overlap matrix is 3.9653691994E-04.
    Using symmetric orthogonalization.

  ==> Pre-Iterations <==

  SCF Guess: Superposition of Atomic Densities via on-the-fly atomic UHF (no occupation information).

   -------------------------
    Irrep   Nso     Nmo    
   -------------------------
     A         88      88 
   -------------------------
    Total      88      88
   -------------------------

  ==> Iterations <==

                        Total Energy        Delta E     RMS |[F,P]|

   @RHF iter SAD:  -113.10524885190428   -1.13105e+02   0.00000e+00 
   @RHF iter   1:  -113.84710293379212   -7.41854e-01   4.34645e-03 DIIS/ADIIS
   @RHF iter   2:  -113.87309163550778   -2.59887e-02   3.71797e-03 DIIS/ADIIS
   @RHF iter   3:  -113.90863520644794   -3.55436e-02   2.79716e-04 DIIS/ADIIS
   @RHF iter   4:  -113.90917206407053   -5.36858e-04   6.95267e-05 DIIS
   @RHF iter   5:  -113.90921436568847   -4.23016e-05   3.00960e-05 DIIS
   @RHF iter   6:  -113.90922581029226   -1.14446e-05   1.52254e-05 DIIS
   @RHF iter   7:  -113.90922813503039   -2.32474e-06   3.65112e-06 DIIS
   @RHF iter   8:  -113.90922824994405   -1.14914e-07   4.30454e-07 DIIS
   @RHF iter   9:  -113.90922825156747   -1.62342e-09   9.05543e-08 DIIS
   @RHF iter  10:  -113.90922825162703   -5.95577e-11   1.42516e-08 DIIS
   @RHF iter  11:  -113.90922825162890   -1.87583e-12   1.57584e-09 DIIS
   @RHF iter  12:  -113.90922825162869    2.13163e-13   2.73237e-10 DIIS
   @RHF iter  13:  -113.90922825162865    4.26326e-14   4.91842e-11 DIIS
  Energy and wave function converged.


  ==> Post-Iterations <==

    Orbital Energies [Eh]
    ---------------------

    Doubly Occupied:                                                      

       1A    -20.576172     2A    -11.343560     3A     -1.392030  
       4A     -0.873273     5A     -0.688308     6A     -0.646025  
       7A     -0.527142     8A     -0.444015  

    Virtual:                                                              

       9A      0.113634    10A      0.146242    11A      0.205110  
      12A      0.268198    13A      0.439157    14A      0.444133  
      15A      0.457400    16A      0.588622    17A      0.619209  
      18A      0.682617    19A      0.705338    20A      0.728252  
      21A      0.867774    22A      0.894579    23A      0.939822  
      24A      1.020841    25A      1.070869    26A      1.177563  
      27A      1.196222    28A      1.216682    29A      1.330091  
      30A      1.330261    31A      1.470339    32A      1.651707  
      33A      1.776152    34A      1.943769    35A      2.003069  
      36A      2.157984    37A      2.293207    38A      2.320190  
[...]
   -------------------------
     A         88      88 
   -------------------------
    Total      88      88
   -------------------------

  ==> Iterations <==

                        Total Energy        Delta E     RMS |[F,P]|

   @RHF iter SAD:  -113.14609060137735   -1.13146e+02   0.00000e+00 
   @RHF iter   1:  -113.85096756661520   -7.04877e-01   4.31640e-03 DIIS/ADIIS
   @RHF iter   2:  -113.87812667325758   -2.71591e-02   3.59873e-03 DIIS/ADIIS
   @RHF iter   3:  -113.91107393429407   -3.29473e-02   2.78052e-04 DIIS/ADIIS
   @RHF iter   4:  -113.91159448721824   -5.20553e-04   7.00247e-05 DIIS
   @RHF iter   5:  -113.91163501255727   -4.05253e-05   2.97751e-05 DIIS
   @RHF iter   6:  -113.91164600871947   -1.09962e-05   1.46566e-05 DIIS
   @RHF iter   7:  -113.91164814147471   -2.13276e-06   3.23812e-06 DIIS
   @RHF iter   8:  -113.91164822866128   -8.71866e-08   3.53831e-07 DIIS
   @RHF iter   9:  -113.91164822970262   -1.04134e-09   7.28813e-08 DIIS
   @RHF iter  10:  -113.91164822973876   -3.61382e-11   1.23400e-08 DIIS
   @RHF iter  11:  -113.91164822973998   -1.22213e-12   1.39828e-09 DIIS
   @RHF iter  12:  -113.91164822974017   -1.84741e-13   2.38408e-10 DIIS
   @RHF iter  13:  -113.91164822973997    1.98952e-13   3.62526e-11 DIIS
  Energy and wave function converged.


  ==> Post-Iterations <==

    Orbital Energies [Eh]
    ---------------------

    Doubly Occupied:                                                      

       1A    -20.574504     2A    -11.339204     3A     -1.403385  
       4A     -0.869905     5A     -0.693126     6A     -0.650104  
       7A     -0.534318     8A     -0.441733  

    Virtual:                                                              

       9A      0.118904    10A      0.147586    11A      0.206063  
      12A      0.268886    13A      0.437755    14A      0.444020  
      15A      0.458710    16A      0.590292    17A      0.624326  
      18A      0.685152    19A      0.705694    20A      0.739639  
      21A      0.866728    22A      0.894029    23A      0.946182  
      24A      1.020591    25A      1.067605    26A      1.179564  
      27A      1.209171    28A      1.216304    29A      1.334066  
      30A      1.341531    31A      1.470293    32A      1.653061  
      33A      1.778938    34A      1.951665    35A      2.004271  
      36A      2.169651    37A      2.304636    38A      2.310725  
      39A      2.349111    40A      2.493252    41A      2.635384  
      42A      2.843073    43A      2.866737    44A      2.930048  
      45A      3.025004    46A      3.119962    47A      3.171544  
      48A      3.216313    49A      3.262089    50A      3.437896  
      51A      3.456605    52A      3.502505    53A      3.605596  
      54A      3.620136    55A      3.634214    56A      3.707396  
      57A      3.914479    58A      4.019255    59A      4.143800  
      60A      4.179740    61A      4.195464    62A      4.260240  
      63A      4.428383    64A      4.510495    65A      4.780492  
      66A      4.782912    67A      4.919792    68A      5.049393  
      69A      5.070048    70A      5.070871    71A      5.368171  
      72A      5.420401    73A      5.608897    74A      5.666906  
      75A      5.676762    76A      6.054068    77A      6.119781  
      78A      6.287529    79A      6.615177    80A      6.623051  
      81A      6.859075    82A      6.890703    83A      7.288758  
      84A      7.410935    85A      7.519649    86A      7.529891  
      87A     11.055961    88A     13.488510  

    Final Occupation by Irrep:
              A 
    DOCC [     8 ]
    NA   [     8 ]
    NB   [     8 ]

  @RHF Final Energy:  -113.91164822973997

   => Energetics <=

    Nuclear Repulsion Energy =             31.3041973623653398
    One-Electron Energy =                -217.4191326193692078
    Two-Electron Energy =                  72.2032870272639116
    Total Energy =                       -113.9116482297399671

Computation Completed


Properties will be evaluated at   0.000000,   0.000000,   0.000000 [a0]

Properties computed using the SCF density matrix


 Multipole Moments:

 ------------------------------------------------------------------------------------
     Multipole            Electronic (a.u.)      Nuclear  (a.u.)        Total (a.u.)
 ------------------------------------------------------------------------------------

 L = 1.  Multiply by 2.5417464519 to convert [e a0] to [Debye]
 Dipole X            :          1.3641489           -2.4646174           -1.1004685
 Dipole Y            :          0.0007797           -0.0007158            0.0000639
 Dipole Z            :          0.0004253           -0.0004170            0.0000083
 Magnitude           :                                                    1.1004685

 ------------------------------------------------------------------------------------

*** tstop() called on CHEMYY31VALT at Tue May 14 14:41:42 2024
Module time:
	user time   =       0.59 seconds =       0.01 minutes
	system time =       0.01 seconds =       0.00 minutes
	total time  =          1 seconds =       0.02 minutes
Total time:
	user time   =     528.88 seconds =       8.81 minutes
	system time =     198.22 seconds =       3.30 minutes
	total time  =        767 seconds =      12.78 minutes
 MINTS: Wrapper to libmints.
   by Justin Turney

   Calculation information:
      Number of threads:                 1
      Number of atoms:                   4
      Number of AO shells:              32
      Number of SO shells:              32
      Number of primitives:             68
      Number of atomic orbitals:       100
      Number of basis functions:        88

      Number of irreps:                  1
      Integral cutoff                 1.00e-12
      Number of functions per irrep: [  88 ]

 OEINTS: Overlap, kinetic, potential, dipole, and quadrupole integrals
         stored in file 35.

      Computing two-electron integrals...done
      Computed 7272849 non-zero two-electron integrals.
        Stored in file 33.


*** tstart() called on CHEMYY31VALT
*** at Tue May 14 14:41:42 2024


	Wfn Parameters:
	--------------------
	Wavefunction         = CCSD_T
	Number of irreps     = 1
	Number of MOs        = 88
	Number of active MOs = 88
	AO-Basis             = NONE
	Semicanonical        = false
	Reference            = RHF
	Print Level          = 1

	IRREP	# MOs	# FZDC	# DOCC	# SOCC	# VIRT	# FZVR
	-----	-----	------	------	------	------	------
	 A	   88	    0	    8	    0	    80	    0
	Transforming integrals...
	IWL integrals will be deleted.
	(OO|OO)...
	Presorting SO-basis two-electron integrals.
	Sorting File: SO Ints (nn|nn) nbuckets = 1
	Constructing frozen core operators
	Starting first half-transformation.
	Sorting half-transformed integrals.
	First half integral transformation complete.
	Starting second half-transformation.
	Two-electron integral transformation complete.
	(OO|OV)...
	Starting second half-transformation.
	Two-electron integral transformation complete.
	(OO|VV)...
	Starting second half-transformation.
	Two-electron integral transformation complete.
	(OV|OO)...
	Starting first half-transformation.
	Sorting half-transformed integrals.
	First half integral transformation complete.
	Starting second half-transformation.
	Two-electron integral transformation complete.
	(OV|OV)...
	Starting second half-transformation.
	Two-electron integral transformation complete.
	(OV|VV)...
	Starting second half-transformation.
	Two-electron integral transformation complete.
	(VV|OO)...
	Starting first half-transformation.
	Sorting half-transformed integrals.
	First half integral transformation complete.
	Starting second half-transformation.
	Two-electron integral transformation complete.
	(VV|OV)...
	Starting second half-transformation.
	Two-electron integral transformation complete.
	(VV|VV)...
	Starting second half-transformation.
	Two-electron integral transformation complete.
	Frozen core energy     =      0.00000000000000

	Size of irrep 0 of <ab|cd> integrals:     40.960 (MW) /    327.680 (MB)
	Total:                                    40.960 (MW) /    327.680 (MB)

	Size of irrep 0 of <ia|bc> integrals:      4.096 (MW) /     32.768 (MB)
	Total:                                     4.096 (MW) /     32.768 (MB)

	Size of irrep 0 of tijab amplitudes:       0.410 (MW) /      3.277 (MB)
	Total:                                     0.410 (MW) /      3.277 (MB)

	Nuclear Rep. energy          =     31.30419736236534
	SCF energy                   =   -113.91164822973997
	One-electron energy          =   -217.41913261052593
	Two-electron energy          =     72.20328701842064
	Reference energy             =   -113.91164822973995

*** tstop() called on CHEMYY31VALT at Tue May 14 14:41:45 2024
Module time:
	user time   =       1.51 seconds =       0.03 minutes
	system time =       0.76 seconds =       0.01 minutes
	total time  =          3 seconds =       0.05 minutes
Total time:
	user time   =     530.66 seconds =       8.84 minutes
	system time =     199.12 seconds =       3.32 minutes
	total time  =        770 seconds =      12.83 minutes
            **************************
            *                        *
            *        CCENERGY        *
            *                        *
            **************************

    Nuclear Rep. energy (wfn)     =   31.304197362365340
    SCF energy          (wfn)     = -113.911648229739967
    Reference energy    (file100) = -113.911648229739953

    Input parameters:
    -----------------
    Wave function   =     CCSD_T
    Reference wfn   =     RHF
    Brueckner       =     No
    Memory (Mbytes) =     524.3
    Maxiter         =     50
    R_Convergence   =     1.0e-07
    E_Convergence   =     1.0e-08
    Restart         =     Yes
    DIIS            =     Yes
    AO Basis        =     NONE
    ABCD            =     NEW
    Cache Level     =     2
    Cache Type      =     LOW
    Print Level     =     1
    Num. of threads =     1
    # Amps to Print =     10
    Print MP2 Amps? =     No
    Analyze T2 Amps =     No
    Print Pair Ener =     No
    Local CC        =     No
    SCS-MP2         =     False
    SCSN-MP2        =     False
    SCS-CCSD        =     False

MP2 correlation energy -0.4235601904569464
                Solving CC Amplitude Equations
                ------------------------------
  Iter             Energy              RMS        T1Diag      D1Diag    New D1Diag    D2Diag
  ----     ---------------------    ---------   ----------  ----------  ----------   --------
     0        -0.423560190456946    0.000e+00    0.000000    0.000000    0.000000    0.161352
     1        -0.419571298616183    6.110e-02    0.011112    0.034562    0.034562    0.158382
     2        -0.430860143791796    2.438e-02    0.010601    0.034428    0.034428    0.170920
     3        -0.434162051570402    1.072e-02    0.012900    0.042699    0.042699    0.178016
     4        -0.433827017092744    2.783e-03    0.013231    0.044417    0.044417    0.179697
     5        -0.433918779248187    1.280e-03    0.013462    0.045533    0.045533    0.180770
     6        -0.433938532802160    3.230e-04    0.013508    0.045823    0.045823    0.180896
     7        -0.433929186506865    1.165e-04    0.013512    0.045880    0.045880    0.180885
     8        -0.433928427364557    3.946e-05    0.013516    0.045913    0.045913    0.180886
     9        -0.433928611927189    1.061e-05    0.013517    0.045919    0.045919    0.180884
    10        -0.433928008619702    3.645e-06    0.013516    0.045919    0.045919    0.180883
    11        -0.433928213370918    1.417e-06    0.013516    0.045919    0.045919    0.180883
    12        -0.433928154403840    4.127e-07    0.013516    0.045919    0.045919    0.180883
    13        -0.433928172926273    1.833e-07    0.013516    0.045919    0.045919    0.180883
    14        -0.433928174828856    3.878e-08    0.013516    0.045919    0.045919    0.180883
    15        -0.433928174500038    1.459e-08    0.013516    0.045919    0.045919    0.180883

    Iterations converged.


    Largest TIA Amplitudes:
              6   0        -0.0335711779
              6   5        -0.0234797702
              7   2        -0.0124650764
              6  12         0.0118450338
              4   8        -0.0114560902
              6  19         0.0102561919
              7   8        -0.0082765853
              7   6        -0.0080328225
              6  27         0.0077418025
              4   2        -0.0075666927

    Largest TIjAb Amplitudes:
      6   6   0   0        -0.1094671599
      6   6   0  12        -0.0360590290
      6   6  12   0        -0.0360590290
      6   6   0   5        -0.0311166981
      6   6   5   0        -0.0311166981
      3   3   0   0        -0.0284597972
      4   4   8   8        -0.0256209964
      6   6  12  12        -0.0231691488
      5   6   9   0        -0.0225606117
      6   5   0   9        -0.0225606117

    SCF energy       (wfn)                    = -113.911648229739967
    Reference energy (file100)                = -113.911648229739953

    Opposite-spin MP2 correlation energy      =   -0.323685456488573
    Same-spin MP2 correlation energy          =   -0.099874733968373
    Singles MP2 correlation energy            =   -0.000000000000000
    MP2 correlation energy                    =   -0.423560190456946
      * MP2 total energy                      = -114.335208420196892

    Opposite-spin CCSD correlation energy     =   -0.345867698702361
    Same-spin CCSD correlation energy         =   -0.088060475797677
    Singles CCSD correlation energy           =    0.000000000000000
    CCSD correlation energy                   =   -0.433928174500038
      * CCSD total energy                     = -114.345576404239992

            **************************
            *                        *
            *        CCTRIPLES       *
            *                        *
            **************************


    Wave function   =    CCSD_T
    Reference wfn   =      RHF

    Nuclear Rep. energy (wfn)                =   31.304197362365340
    SCF energy          (wfn)                = -113.911648229739967
    Reference energy    (file100)            = -113.911648229739953
    CCSD energy         (file100)            =   -0.433928174500038
    Total CCSD energy   (file100)            = -114.345576404239992

    Number of ijk index combinations:              120
    Memory available in words               :        65536000
    Approx. words needed per explicit thread:         2048000
    Number of threads for explicit ijk threading:    1

    (T) energy                                =   -0.016919030687914
      * CCSD(T) total energy                  = -114.362495434927908


    Psi4 stopped on: Tuesday, 14 May 2024 02:41PM
    Psi4 wall time for execution: 0:00:11.98


  //>>>>>>>>>>>>>>>>>>>>>>>>>>>>>>>>>>>//
  //      FiniteDifference Results     //
  //<<<<<<<<<<<<<<<<<<<<<<<<<<<<<<<<<<<//

  Computing gradient from energies.
    Using 3-point formula.
    Energy without displacement: -114.3624988029
    Check energies below for precision!
    Forces are for mass-weighted, symmetry-adapted cartesians [a0].

     Coord      Energy(-1)        Energy(+1)            Force
        0   -114.3624976854   -114.3624970837      0.0000601715
        1   -114.3624981917   -114.3624979966      0.0000195045
        2   -114.3624980886   -114.3624979898      0.0000098773
        3   -114.3624967019   -114.3624968407     -0.0000138780
        4   -114.3624945452   -114.3624945457     -0.0000000465
        5   -114.3624954898   -114.3624954349      0.0000054912
         -------------------------------------------------------------

    			-----------------------------------------

    			 OPTKING 3.0: for geometry optimizations 

    			     By R.A. King, Bethel University     

    			        with contributions from          

    			    A.V. Copan, J. Cayton, A. Heide      

    			-----------------------------------------

    
	                            ===> Fragment 1 <== 

	 Z (Atomic Numbers)          Masses                          Geom                  
	       8.000000            15.994915          1.12319747 -0.00009376 -0.00002887   
	       6.000000            12.000000         -1.15695585 -0.00007733 -0.00004298   
	       1.000000             1.007825         -2.25421715  0.45886983 -1.70168350   
	       1.000000             1.007825         -2.25424491 -0.45837157  1.70175536   

	 - Coordinate -           - BOHR/RAD -       - ANG/DEG -
	 R(1,2)           =         2.280153           1.206605
	 R(2,3)           =         2.076101           1.098625
	 R(2,4)           =         2.076101           1.098625
	 B(1,2,3)         =         2.127661         121.905974
	 B(1,2,4)         =         2.127661         121.905981
	 B(3,2,4)         =         2.027864         116.188041
	 O(1,2,3,4)       =         0.000301           0.017225
	 O(3,2,1,4)       =        -0.000318          -0.018208
	 O(4,2,1,3)       =         0.000318           0.018208


	        --- Internal Coordinate Step in ANG or DEG, aJ/ANG or AJ/DEG ---
	-------------------------------------------------------------------------------
	           Coordinate      Previous         Force          Change          New 
	           ----------      --------        ------          ------        ------
	               R(1,2)       1.20661       -0.00135       -0.00011       1.20649
	               R(2,3)       1.09863       -0.00004        0.00001       1.09863
	               R(2,4)       1.09863       -0.00004        0.00001       1.09863
	             B(1,2,3)     121.90597       -0.00000        0.00157     121.90755
	             B(1,2,4)     121.90598       -0.00000        0.00157     121.90755
	             B(3,2,4)     116.18804        0.00000       -0.00314     116.18490
	           O(1,2,3,4)       0.01723       -0.00000       -0.01721       0.00002
	           O(3,2,1,4)      -0.01821        0.00000        0.01819      -0.00002
	           O(4,2,1,3)       0.01821       -0.00000       -0.01819       0.00002
	-------------------------------------------------------------------------------

	                                 ==> Convergence Check <==                                  
    
	Measures of convergence in internal coordinates in au.
    
	Criteria marked as inactive (o), active & met (*), and active & unmet ( ).

	----------------------------------------------------------------------------------------------
	   Step    Total Energy     Delta E     Max Force     RMS Force      Max Disp      RMS Disp   
	----------------------------------------------------------------------------------------------
	  Convergence Criteria     1.00e-06 *    3.00e-04 *             o    1.20e-03 *             o
	----------------------------------------------------------------------------------------------
	     5    -114.36249880   -1.31e-05      1.64e-04 *    5.51e-05 o    3.17e-04 *    1.95e-04 o  ~
	----------------------------------------------------------------------------------------------

Next Geometry in Ang 
	Fragment 1 (Ang)

	    O   0.5943011019  -0.0000773047  -0.0000227376
	    C  -0.6121925425   0.0000443270   0.0000001813
	    H  -1.1928666923   0.2427917585  -0.9004890276
	    H  -1.1928814046  -0.2425856467   0.9005115840


    Final optimized geometry and variables:
    Molecular point group: c1
    Full point group: C1

    Geometry (in Angstrom), charge = 0, multiplicity = 1:

    O            0.594370505132    -0.000049614464    -0.000015278280
    C           -0.612234669714    -0.000040922284    -0.000022745348
    H           -1.192880341308     0.242823458206    -0.900492129486
    H           -1.192895031652    -0.242559787332     0.900530153114


    Psi4 stopped on: Tuesday, 14 May 2024 02:41PM
    Psi4 wall time for execution: 0:12:58.56

*** Psi4 exiting successfully. Buy a developer a beer!
